<?xml version="1.0" encoding="UTF-8"?>

<!-- generated on 2025-09-25 09:43:09 by Eclipse SUMO GUI Version 1.24.0
<sumoConfiguration xmlns:xsi="http://www.w3.org/2001/XMLSchema-instance" xsi:noNamespaceSchemaLocation="http://sumo.dlr.de/xsd/sumoConfiguration.xsd">

    <input>
        <net-file value="osm.net.xml.gz"/>
        <additional-files value="osm.poly.xml.gz,osm_stops.add.xml,output.add.xml"/>
    </input>

    <output>
        <tripinfo-output value="tripinfos.xml"/>
        <stop-output value="stopinfos.xml"/>
        <statistic-output value="stats.xml"/>
    </output>

    <processing>
        <ignore-route-errors value="true"/>
        <tls.actuated.jam-threshold value="30"/>
    </processing>

    <routing>
        <device.rerouting.adaptation-steps value="18"/>
        <device.rerouting.adaptation-interval value="10"/>
    </routing>

    <report>
        <verbose value="true"/>
        <duration-log.statistics value="true"/>
        <no-step-log value="true"/>
    </report>

    <traci_server>
        <remote-port value="56175"/>
    </traci_server>

    <gui_only>
        <gui-settings-file value="osm.view.xml"/>
    </gui_only>

</sumoConfiguration>
-->

<tripinfos xmlns:xsi="http://www.w3.org/2001/XMLSchema-instance" xsi:noNamespaceSchemaLocation="http://sumo.dlr.de/xsd/tripinfo_file.xsd">
    <tripinfo id="test34" depart="3.00" departLane="1409620054#0_2" departPos="5.10" departSpeed="0.00" departDelay="2.00" arrival="56.00" arrivalLane="542169703_3" arrivalPos="0.20" arrivalSpeed="13.52" duration="53.00" routeLength="604.65" waitingTime="0.00" waitingCount="0" stopTime="0.00" timeLoss="9.42" rerouteNo="0" devices="tripinfo_test34" vType="Compliance_2" speedFactor="1.02" vaporized=""/>
    <tripinfo id="test42" depart="3.00" departLane="-544164277#2_1" departPos="5.10" departSpeed="0.00" departDelay="2.00" arrival="94.00" arrivalLane="237652077#0_1" arrivalPos="8.40" arrivalSpeed="14.12" duration="91.00" routeLength="1127.99" waitingTime="0.00" waitingCount="0" stopTime="0.00" timeLoss="11.21" rerouteNo="0" devices="tripinfo_test42" vType="Compliance_2" speedFactor="1.04" vaporized=""/>
    <tripinfo id="test60" depart="8.00" departLane="4747009_2" departPos="5.10" departSpeed="0.00" departDelay="7.00" arrival="119.00" arrivalLane="284450145#2_1" arrivalPos="70.25" arrivalSpeed="15.31" duration="111.00" routeLength="1029.15" waitingTime="11.00" waitingCount="3" stopTime="0.00" timeLoss="37.90" rerouteNo="0" devices="tripinfo_test60" vType="Compliance_3" speedFactor="1.12" vaporized=""/>
    <tripinfo id="test76" depart="2.00" departLane="543400543#0_1" departPos="5.10" departSpeed="0.00" departDelay="0.00" arrival="168.00" arrivalLane="24793649#2_0" arrivalPos="19.40" arrivalSpeed="7.81" duration="166.00" routeLength="1529.43" waitingTime="3.00" waitingCount="1" stopTime="0.00" timeLoss="24.96" rerouteNo="0" devices="tripinfo_test76" vType="Compliance_2" speedFactor="0.98" vaporized=""/>
    <tripinfo id="test51" depart="3.00" departLane="1391893478#0_1" departPos="5.10" departSpeed="0.00" departDelay="2.00" arrival="209.00" arrivalLane="198597875#3_0" arrivalPos="53.60" arrivalSpeed="7.57" duration="206.00" routeLength="1721.93" waitingTime="7.00" waitingCount="2" stopTime="0.00" timeLoss="41.87" rerouteNo="0" devices="tripinfo_test51" vType="Compliance_2" speedFactor="1.02" vaporized=""/>
    <tripinfo id="test10" depart="0.00" departLane="1409620054#0_1" departPos="5.10" departSpeed="0.00" departDelay="0.00" arrival="362.00" arrivalLane="238862123#0_0" arrivalPos="88.95" arrivalSpeed="13.73" duration="362.00" routeLength="3162.27" waitingTime="61.00" waitingCount="6" stopTime="0.00" timeLoss="135.17" rerouteNo="0" devices="tripinfo_test10" vType="Compliance_1" speedFactor="1.03" vaporized=""/>
    <tripinfo id="test64" depart="1.00" departLane="1391890993#0_2" departPos="5.10" departSpeed="0.00" departDelay="0.00" arrival="369.00" arrivalLane="17206544#1_0" arrivalPos="15.32" arrivalSpeed="6.89" duration="368.00" routeLength="566.02" waitingTime="301.00" waitingCount="1" stopTime="0.00" timeLoss="312.70" rerouteNo="0" devices="tripinfo_test64" vType="Compliance_2" speedFactor="0.88" vaporized=""/>
    <tripinfo id="test94" depart="2.00" departLane="543400543#0_2" departPos="5.10" departSpeed="0.00" departDelay="0.00" arrival="373.00" arrivalLane="84036380#0_1" arrivalPos="15.55" arrivalSpeed="12.85" duration="371.00" routeLength="2836.68" waitingTime="89.00" waitingCount="6" stopTime="0.00" timeLoss="160.67" rerouteNo="0" devices="tripinfo_test94" vType="Compliance_2" speedFactor="1.06" vaporized=""/>
    <tripinfo id="test147" depart="183.00" departLane="129169443_2" departPos="5.10" departSpeed="0.00" departDelay="3.00" arrival="387.00" arrivalLane="198597865#2_1" arrivalPos="0.80" arrivalSpeed="12.15" duration="204.00" routeLength="1889.50" waitingTime="13.00" waitingCount="4" stopTime="0.00" timeLoss="52.25" rerouteNo="0" devices="tripinfo_test147" vType="Compliance_2" speedFactor="0.92" vaporized=""/>
    <tripinfo id="test106" depart="123.00" departLane="284616361#0_2" departPos="5.10" departSpeed="0.00" departDelay="3.00" arrival="396.00" arrivalLane="4752046#1_0" arrivalPos="50.66" arrivalSpeed="4.39" duration="273.00" routeLength="1818.78" waitingTime="0.00" waitingCount="0" stopTime="0.00" timeLoss="35.47" rerouteNo="0" devices="tripinfo_test106" vType="Compliance_1" speedFactor="1.01" vaporized=""/>
    <tripinfo id="test134" depart="160.00" departLane="1409620054#0_1" departPos="5.10" departSpeed="0.00" departDelay="0.00" arrival="407.00" arrivalLane="198597865#12_0" arrivalPos="32.26" arrivalSpeed="13.03" duration="247.00" routeLength="2311.19" waitingTime="21.00" waitingCount="4" stopTime="0.00" timeLoss="70.82" rerouteNo="0" devices="tripinfo_test134" vType="Compliance_1" speedFactor="0.97" vaporized=""/>
    <tripinfo id="test102" depart="113.00" departLane="68506232#0_2" departPos="5.10" departSpeed="0.00" departDelay="3.00" arrival="411.00" arrivalLane="-123271690#2_1" arrivalPos="23.12" arrivalSpeed="12.54" duration="298.00" routeLength="2330.43" waitingTime="28.00" waitingCount="2" stopTime="0.00" timeLoss="72.43" rerouteNo="0" devices="tripinfo_test102" vType="Compliance_2" speedFactor="0.95" vaporized=""/>
    <tripinfo id="test161" depart="218.00" departLane="1391893480_3" departPos="5.10" departSpeed="0.00" departDelay="8.00" arrival="427.00" arrivalLane="237515358#4_2" arrivalPos="66.19" arrivalSpeed="13.25" duration="209.00" routeLength="1753.59" waitingTime="21.00" waitingCount="5" stopTime="0.00" timeLoss="82.12" rerouteNo="0" devices="tripinfo_test161" vType="Compliance_2" speedFactor="1.03" vaporized=""/>
    <tripinfo id="test8" depart="0.00" departLane="283778455#0_2" departPos="5.10" departSpeed="0.00" departDelay="0.00" arrival="441.00" arrivalLane="238862118#0_1" arrivalPos="15.94" arrivalSpeed="10.89" duration="441.00" routeLength="3543.67" waitingTime="67.00" waitingCount="6" stopTime="0.00" timeLoss="138.80" rerouteNo="0" devices="tripinfo_test8" vType="Compliance_2" speedFactor="0.86" vaporized=""/>
    <tripinfo id="test150" depart="195.00" departLane="1409620054#0_2" departPos="5.10" departSpeed="0.00" departDelay="5.00" arrival="459.00" arrivalLane="308378771#0_1" arrivalPos="31.79" arrivalSpeed="13.36" duration="264.00" routeLength="2223.82" waitingTime="51.00" waitingCount="4" stopTime="0.00" timeLoss="106.12" rerouteNo="0" devices="tripinfo_test150" vType="Compliance_2" speedFactor="1.03" vaporized=""/>
    <tripinfo id="test54" depart="1.00" departLane="538722959_1" departPos="5.10" departSpeed="0.00" departDelay="0.00" arrival="469.00" arrivalLane="198597865#3_0" arrivalPos="53.85" arrivalSpeed="13.79" duration="468.00" routeLength="1689.08" waitingTime="309.00" waitingCount="4" stopTime="0.00" timeLoss="343.57" rerouteNo="0" devices="tripinfo_test54" vType="Compliance_2" speedFactor="1.00" vaporized=""/>
    <tripinfo id="test138" depart="173.00" departLane="1409620054#0_1" departPos="5.10" departSpeed="0.00" departDelay="3.00" arrival="471.00" arrivalLane="918487975#0_0" arrivalPos="17.06" arrivalSpeed="14.25" duration="298.00" routeLength="2783.98" waitingTime="34.00" waitingCount="7" stopTime="0.00" timeLoss="106.53" rerouteNo="0" devices="tripinfo_test138" vType="Compliance_2" speedFactor="1.05" vaporized=""/>
    <tripinfo id="test80" depart="2.00" departLane="538722959_3" departPos="5.10" departSpeed="0.00" departDelay="0.00" arrival="480.00" arrivalLane="284616361#0_2" arrivalPos="160.33" arrivalSpeed="13.08" duration="478.00" routeLength="2156.38" waitingTime="301.00" waitingCount="1" stopTime="0.00" timeLoss="320.70" rerouteNo="0" devices="tripinfo_test80" vType="Compliance_1" speedFactor="1.00" vaporized=""/>
    <tripinfo id="test33" depart="1.00" departLane="542169703_1" departPos="0.20" departSpeed="0.00" departDelay="0.00" arrival="491.00" arrivalLane="-284616361#4_0" arrivalPos="160.33" arrivalSpeed="12.81" duration="490.00" routeLength="1960.05" waitingTime="324.00" waitingCount="4" stopTime="0.00" timeLoss="348.01" rerouteNo="0" devices="tripinfo_test33" vType="Compliance_2" speedFactor="0.99" vaporized=""/>
    <tripinfo id="test38" depart="1.00" departLane="1391901666_1" departPos="0.20" departSpeed="0.00" departDelay="0.00" arrival="497.00" arrivalLane="1160858482#0_0" arrivalPos="30.45" arrivalSpeed="10.46" duration="496.00" routeLength="1850.84" waitingTime="306.00" waitingCount="4" stopTime="0.00" timeLoss="348.47" rerouteNo="0" devices="tripinfo_test38" vType="Compliance_2" speedFactor="0.90" vaporized=""/>
    <tripinfo id="test103" depart="110.00" departLane="253360734#0_2" departPos="5.10" departSpeed="0.00" departDelay="0.00" arrival="526.00" arrivalLane="-1395142051#1_0" arrivalPos="21.81" arrivalSpeed="12.17" duration="416.00" routeLength="3328.09" waitingTime="66.00" waitingCount="6" stopTime="0.00" timeLoss="128.51" rerouteNo="0" devices="tripinfo_test103" vType="Compliance_1" speedFactor="0.89" vaporized=""/>
    <tripinfo id="test30" depart="3.00" departLane="538722960_2" departPos="0.29" departSpeed="0.00" departDelay="2.00" arrival="545.00" arrivalLane="-308378771#2_1" arrivalPos="31.97" arrivalSpeed="12.49" duration="542.00" routeLength="1853.54" waitingTime="378.00" waitingCount="6" stopTime="0.00" timeLoss="422.04" rerouteNo="0" devices="tripinfo_test30" vType="Compliance_1" speedFactor="1.15" vaporized=""/>
    <tripinfo id="test21" depart="0.00" departLane="1391890993#0_1" departPos="5.10" departSpeed="0.00" departDelay="0.00" arrival="556.00" arrivalLane="1227311558_0" arrivalPos="0.20" arrivalSpeed="4.16" duration="556.00" routeLength="2112.81" waitingTime="328.00" waitingCount="7" stopTime="0.00" timeLoss="382.41" rerouteNo="0" devices="tripinfo_test21" vType="Compliance_1" speedFactor="0.97" vaporized=""/>
    <tripinfo id="test23" depart="0.00" departLane="544243187_1" departPos="0.20" departSpeed="0.00" departDelay="0.00" arrival="579.00" arrivalLane="35682480#2_0" arrivalPos="139.61" arrivalSpeed="11.07" duration="579.00" routeLength="1837.11" waitingTime="368.00" waitingCount="7" stopTime="0.00" timeLoss="415.26" rerouteNo="0" devices="tripinfo_test23" vType="Compliance_1" speedFactor="0.83" vaporized=""/>
    <tripinfo id="test68" depart="1.00" departLane="396947540#0_1" departPos="5.10" departSpeed="0.00" departDelay="0.00" arrival="598.00" arrivalLane="268565420_0" arrivalPos="38.62" arrivalSpeed="4.88" duration="597.00" routeLength="4427.43" waitingTime="101.00" waitingCount="14" stopTime="0.00" timeLoss="232.21" rerouteNo="0" devices="tripinfo_test68" vType="Compliance_2" speedFactor="1.02" vaporized=""/>
    <tripinfo id="test105" depart="113.00" departLane="253360734#0_1" departPos="5.10" departSpeed="0.00" departDelay="3.00" arrival="639.00" arrivalLane="1110658875_0" arrivalPos="32.23" arrivalSpeed="12.56" duration="526.00" routeLength="3918.84" waitingTime="95.00" waitingCount="10" stopTime="0.00" timeLoss="222.64" rerouteNo="0" devices="tripinfo_test105" vType="Compliance_2" speedFactor="1.01" vaporized=""/>
    <tripinfo id="test26" depart="1.00" departLane="-237652077#3_2" departPos="5.10" departSpeed="0.00" departDelay="0.00" arrival="699.00" arrivalLane="777231957_0" arrivalPos="7.65" arrivalSpeed="5.24" duration="698.00" routeLength="2733.71" waitingTime="366.00" waitingCount="9" stopTime="0.00" timeLoss="438.83" rerouteNo="0" devices="tripinfo_test26" vType="Compliance_1" speedFactor="0.95" vaporized=""/>
    <tripinfo id="test3" depart="0.00" departLane="-237652077#3_1" departPos="5.10" departSpeed="0.00" departDelay="0.00" arrival="746.00" arrivalLane="295288868_0" arrivalPos="0.20" arrivalSpeed="13.82" duration="746.00" routeLength="2873.88" waitingTime="490.00" waitingCount="5" stopTime="0.00" timeLoss="543.51" rerouteNo="0" devices="tripinfo_test3" vType="Compliance_2" speedFactor="1.03" vaporized=""/>
    <tripinfo id="test81" depart="4.00" departLane="538551233#0_4" departPos="5.10" departSpeed="0.00" departDelay="2.00" arrival="754.00" arrivalLane="237695645_2" arrivalPos="33.74" arrivalSpeed="13.59" duration="750.00" routeLength="1624.76" waitingTime="605.00" waitingCount="4" stopTime="0.00" timeLoss="634.59" rerouteNo="0" devices="tripinfo_test81" vType="Compliance_3" speedFactor="1.02" vaporized=""/>
    <tripinfo id="test62" depart="302.00" departLane="542169703_1" departPos="0.20" departSpeed="0.00" departDelay="301.00" arrival="760.00" arrivalLane="541430463#7_0" arrivalPos="54.78" arrivalSpeed="12.45" duration="458.00" routeLength="1101.37" waitingTime="289.00" waitingCount="4" stopTime="0.00" timeLoss="336.92" rerouteNo="0" devices="tripinfo_test62" vType="Compliance_1" speedFactor="0.99" vaporized=""/>
    <tripinfo id="test79" depart="3.00" departLane="257568505#0_1" departPos="5.10" departSpeed="0.00" departDelay="1.00" arrival="777.00" arrivalLane="538722960_3" arrivalPos="0.29" arrivalSpeed="0.00" duration="774.00" routeLength="2117.86" waitingTime="602.00" waitingCount="2" stopTime="0.00" timeLoss="625.26" rerouteNo="0" devices="tripinfo_test79" vType="Compliance_1" speedFactor="1.03" vaporized="teleport"/>
    <tripinfo id="test45" depart="1.00" departLane="-397481042#4_2" departPos="5.10" departSpeed="0.00" departDelay="0.00" arrival="792.00" arrivalLane="-287683998#1_0" arrivalPos="15.10" arrivalSpeed="7.19" duration="791.00" routeLength="2390.69" waitingTime="554.00" waitingCount="4" stopTime="0.00" timeLoss="598.44" rerouteNo="0" devices="tripinfo_test45" vType="Compliance_1" speedFactor="1.00" vaporized=""/>
    <tripinfo id="test63" depart="1.00" departLane="544200294#0_1" departPos="5.10" departSpeed="0.00" departDelay="0.00" arrival="806.00" arrivalLane="908375879#0_0" arrivalPos="113.77" arrivalSpeed="1.45" duration="805.00" routeLength="1181.19" waitingTime="601.00" waitingCount="3" stopTime="0.00" timeLoss="648.69" rerouteNo="0" devices="tripinfo_test63" vType="Compliance_3" speedFactor="0.94" vaporized=""/>
    <tripinfo id="test169" depart="304.00" departLane="538722960_1" departPos="0.29" departSpeed="0.00" departDelay="84.00" arrival="844.00" arrivalLane="239293914#7_3" arrivalPos="43.38" arrivalSpeed="13.54" duration="540.00" routeLength="2016.73" waitingTime="325.00" waitingCount="6" stopTime="0.00" timeLoss="372.94" rerouteNo="0" devices="tripinfo_test169" vType="Compliance_2" speedFactor="1.07" vaporized=""/>
    <tripinfo id="test53" depart="1.00" departLane="1391890990#0_2" departPos="5.10" departSpeed="0.00" departDelay="0.00" arrival="856.00" arrivalLane="237555367#0_0" arrivalPos="29.17" arrivalSpeed="13.56" duration="855.00" routeLength="2128.61" waitingTime="639.00" waitingCount="7" stopTime="0.00" timeLoss="690.05" rerouteNo="0" devices="tripinfo_test53" vType="Compliance_2" speedFactor="1.00" vaporized=""/>
    <tripinfo id="test86" depart="2.00" departLane="1391886572_2" departPos="5.10" departSpeed="0.00" departDelay="0.00" arrival="871.00" arrivalLane="-45185735#4_0" arrivalPos="108.17" arrivalSpeed="8.45" duration="869.00" routeLength="2618.37" waitingTime="604.00" waitingCount="4" stopTime="0.00" timeLoss="640.92" rerouteNo="0" devices="tripinfo_test86" vType="Compliance_1" speedFactor="1.04" vaporized=""/>
    <tripinfo id="test123" depart="149.00" departLane="294056749#0_2" departPos="5.10" departSpeed="0.00" departDelay="9.00" arrival="900.00" arrivalLane="-913677478_0" arrivalPos="30.19" arrivalSpeed="5.12" duration="751.00" routeLength="2389.52" waitingTime="502.00" waitingCount="9" stopTime="0.00" timeLoss="564.49" rerouteNo="0" devices="tripinfo_test123" vType="Compliance_1" speedFactor="1.07" vaporized=""/>
    <tripinfo id="test139" depart="171.00" departLane="129169443_1" departPos="5.10" departSpeed="0.00" departDelay="1.00" arrival="916.00" arrivalLane="175002094_0" arrivalPos="4.64" arrivalSpeed="11.46" duration="745.00" routeLength="1423.04" waitingTime="610.00" waitingCount="3" stopTime="0.00" timeLoss="631.96" rerouteNo="0" devices="tripinfo_test139" vType="Compliance_1" speedFactor="0.91" vaporized=""/>
    <tripinfo id="test12" depart="0.00" departLane="294056749#0_1" departPos="5.10" departSpeed="0.00" departDelay="0.00" arrival="926.00" arrivalLane="-58774557_0" arrivalPos="78.77" arrivalSpeed="5.02" duration="926.00" routeLength="2641.40" waitingTime="634.00" waitingCount="8" stopTime="0.00" timeLoss="712.52" rerouteNo="0" devices="tripinfo_test12" vType="Compliance_1" speedFactor="1.12" vaporized=""/>
    <tripinfo id="test47" depart="1.00" departLane="4747009_2" departPos="5.10" departSpeed="0.00" departDelay="0.00" arrival="938.00" arrivalLane="312272297_0" arrivalPos="126.04" arrivalSpeed="3.94" duration="937.00" routeLength="2359.08" waitingTime="628.00" waitingCount="7" stopTime="0.00" timeLoss="709.17" rerouteNo="0" devices="tripinfo_test47" vType="Compliance_2" speedFactor="0.88" vaporized=""/>
    <tripinfo id="test96" depart="15.00" departLane="257568505#0_1" departPos="5.10" departSpeed="0.00" departDelay="13.00" arrival="960.00" arrivalLane="238862118#1_1" arrivalPos="48.88" arrivalSpeed="12.34" duration="945.00" routeLength="4591.78" waitingTime="489.00" waitingCount="12" stopTime="0.00" timeLoss="581.34" rerouteNo="0" devices="tripinfo_test96" vType="Compliance_3" speedFactor="0.91" vaporized=""/>
    <tripinfo id="test87" depart="306.00" departLane="1217655912_3" departPos="0.20" departSpeed="0.00" departDelay="304.00" arrival="996.00" arrivalLane="4776522_0" arrivalPos="151.02" arrivalSpeed="2.23" duration="690.00" routeLength="229.96" waitingTime="602.00" waitingCount="2" stopTime="0.00" timeLoss="624.65" rerouteNo="0" devices="tripinfo_test87" vType="Compliance_2" speedFactor="1.01" vaporized=""/>
    <tripinfo id="test128" depart="150.00" departLane="1409620054#0_2" departPos="5.10" departSpeed="0.00" departDelay="0.00" arrival="1006.00" arrivalLane="288000443_2" arrivalPos="41.96" arrivalSpeed="13.99" duration="856.00" routeLength="2660.06" waitingTime="629.00" waitingCount="5" stopTime="0.00" timeLoss="671.14" rerouteNo="0" devices="tripinfo_test128" vType="Compliance_2" speedFactor="1.04" vaporized=""/>
    <tripinfo id="test15" depart="0.00" departLane="1409620054#0_2" departPos="5.10" departSpeed="0.00" departDelay="0.00" arrival="1068.00" arrivalLane="664808380_0" arrivalPos="60.54" arrivalSpeed="4.53" duration="1068.00" routeLength="1852.51" waitingTime="856.00" waitingCount="6" stopTime="0.00" timeLoss="893.12" rerouteNo="0" devices="tripinfo_test15" vType="Compliance_1" speedFactor="0.88" vaporized=""/>
    <tripinfo id="test11" depart="0.00" departLane="-544617968#2_1" departPos="5.10" departSpeed="0.00" departDelay="0.00" arrival="1108.00" arrivalLane="538722959_2" arrivalPos="57.04" arrivalSpeed="0.00" duration="1108.00" routeLength="2601.98" waitingTime="892.00" waitingCount="4" stopTime="0.00" timeLoss="924.44" rerouteNo="0" devices="tripinfo_test11" vType="Compliance_2" speedFactor="1.05" vaporized="teleport"/>
    <tripinfo id="test16" depart="0.00" departLane="1217655909_1" departPos="0.20" departSpeed="0.00" departDelay="0.00" arrival="1111.00" arrivalLane="243716771_0" arrivalPos="105.49" arrivalSpeed="12.53" duration="1111.00" routeLength="2052.47" waitingTime="913.00" waitingCount="6" stopTime="0.00" timeLoss="951.47" rerouteNo="0" devices="tripinfo_test16" vType="Compliance_1" speedFactor="0.94" vaporized=""/>
    <tripinfo id="test90" depart="2.00" departLane="1409297989#0_2" departPos="5.10" departSpeed="0.00" departDelay="0.00" arrival="1126.00" arrivalLane="519375852_0" arrivalPos="4.28" arrivalSpeed="6.40" duration="1124.00" routeLength="1435.29" waitingTime="937.00" waitingCount="8" stopTime="0.00" timeLoss="979.27" rerouteNo="0" devices="tripinfo_test90" vType="Compliance_3" speedFactor="0.89" vaporized=""/>
    <tripinfo id="test40" depart="3.00" departLane="-244059991#1_1" departPos="5.10" departSpeed="0.00" departDelay="2.00" arrival="1136.00" arrivalLane="35768197_0" arrivalPos="12.37" arrivalSpeed="4.94" duration="1133.00" routeLength="4434.46" waitingTime="716.00" waitingCount="7" stopTime="0.00" timeLoss="787.17" rerouteNo="0" devices="tripinfo_test40" vType="Compliance_1" speedFactor="0.96" vaporized=""/>
    <tripinfo id="test372" depart="583.00" departLane="-544164277#2_1" departPos="5.10" departSpeed="0.00" departDelay="23.00" arrival="1157.00" arrivalLane="1264827313_1" arrivalPos="5.77" arrivalSpeed="10.03" duration="574.00" routeLength="2088.75" waitingTime="329.00" waitingCount="5" stopTime="0.00" timeLoss="401.99" rerouteNo="0" devices="tripinfo_test372" vType="Compliance_3" speedFactor="0.99" vaporized=""/>
    <tripinfo id="test7" depart="0.00" departLane="538551233#0_1" departPos="5.10" departSpeed="0.00" departDelay="0.00" arrival="1202.00" arrivalLane="491622341#0_0" arrivalPos="2.15" arrivalSpeed="12.43" duration="1202.00" routeLength="2143.82" waitingTime="954.00" waitingCount="12" stopTime="0.00" timeLoss="1026.17" rerouteNo="0" devices="tripinfo_test7" vType="Compliance_3" speedFactor="0.94" vaporized=""/>
    <tripinfo id="test39" depart="6.00" departLane="283778455#0_1" departPos="5.10" departSpeed="0.00" departDelay="5.00" arrival="1239.00" arrivalLane="544124179#0_3" arrivalPos="31.79" arrivalSpeed="14.03" duration="1233.00" routeLength="3641.50" waitingTime="840.00" waitingCount="12" stopTime="0.00" timeLoss="944.51" rerouteNo="0" devices="tripinfo_test39" vType="Compliance_1" speedFactor="1.03" vaporized=""/>
    <tripinfo id="test73" depart="12.00" departLane="4747009_2" departPos="5.10" departSpeed="0.00" departDelay="11.00" arrival="1262.00" arrivalLane="237805203_0" arrivalPos="137.71" arrivalSpeed="12.37" duration="1250.00" routeLength="3043.20" waitingTime="902.00" waitingCount="12" stopTime="0.00" timeLoss="997.67" rerouteNo="0" devices="tripinfo_test73" vType="Compliance_2" speedFactor="0.96" vaporized=""/>
    <tripinfo id="test50" depart="3.00" departLane="-397481042#4_1" departPos="5.10" departSpeed="0.00" departDelay="2.00" arrival="1266.00" arrivalLane="550732199#0_0" arrivalPos="36.07" arrivalSpeed="2.42" duration="1263.00" routeLength="3239.23" waitingTime="966.00" waitingCount="8" stopTime="0.00" timeLoss="1046.46" rerouteNo="0" devices="tripinfo_test50" vType="Compliance_2" speedFactor="1.17" vaporized=""/>
    <tripinfo id="test141" depart="174.00" departLane="129169443_1" departPos="5.10" departSpeed="0.00" departDelay="4.00" arrival="1274.00" arrivalLane="41643018_0" arrivalPos="28.91" arrivalSpeed="5.15" duration="1100.00" routeLength="1778.71" waitingTime="910.00" waitingCount="4" stopTime="0.00" timeLoss="956.95" rerouteNo="0" devices="tripinfo_test141" vType="Compliance_3" speedFactor="1.03" vaporized=""/>
    <tripinfo id="test74" depart="4.00" departLane="-237652077#3_1" departPos="5.10" departSpeed="0.00" departDelay="3.00" arrival="1288.00" arrivalLane="237649292#0_0" arrivalPos="48.42" arrivalSpeed="13.45" duration="1284.00" routeLength="4029.35" waitingTime="653.00" waitingCount="9" stopTime="0.00" timeLoss="789.14" rerouteNo="0" devices="tripinfo_test74" vType="Compliance_2" speedFactor="0.98" vaporized=""/>
    <tripinfo id="ambulance" depart="100.00" departLane="396947540#0_0" departPos="5.10" departSpeed="0.00" departDelay="0.00" arrival="1295.00" arrivalLane="1409297989#0_0" arrivalPos="29.31" arrivalSpeed="10.94" duration="1195.00" routeLength="4121.07" waitingTime="925.00" waitingCount="5" stopTime="0.00" timeLoss="999.44" rerouteNo="0" devices="tripinfo_ambulance bluelight_ambulance" vType="rescue" speedFactor="1.56" vaporized="">
        <bluelight/>
    </tripinfo>
