<?xml version="1.0" encoding="UTF-8"?>

<!-- generated on 2025-08-24 08:42:08 by Eclipse SUMO sumo Version 1.24.0
<sumoConfiguration xmlns:xsi="http://www.w3.org/2001/XMLSchema-instance" xsi:noNamespaceSchemaLocation="http://sumo.dlr.de/xsd/sumoConfiguration.xsd">

    <input>
        <net-file value="C:\Users\marce\Sumo\2025-08-24-08-41-09\osm.net.xml.gz"/>
        <route-files value="C:\Users\marce\Sumo\2025-08-24-08-41-09\trips.trips.xml"/>
        <additional-files value="C:\Users\marce\Sumo\2025-08-24-08-41-09\osm_stops.add.xml"/>
    </input>

    <output>
        <vehroute-output value="C:\Users\marce\Sumo\2025-08-24-08-41-09\vehroutes.xml"/>
        <stop-output value="C:\Users\marce\Sumo\2025-08-24-08-41-09\stopinfos.xml"/>
    </output>

    <time>
        <begin value="0.0"/>
    </time>

    <processing>
        <ignore-route-errors value="true"/>
        <time-to-teleport.disconnected value="0"/>
    </processing>

    <routing>
        <device.rerouting.adaptation-interval value="0"/>
    </routing>

    <report>
        <aggregate-warnings value="5"/>
        <error-log value="C:\Users\marce\Sumo\2025-08-24-08-41-09\trips.trips.xml.errorlog"/>
        <no-step-log value="true"/>
    </report>

</sumoConfiguration>
-->

<routes xmlns:xsi="http://www.w3.org/2001/XMLSchema-instance" xsi:noNamespaceSchemaLocation="http://sumo.dlr.de/xsd/routes_file.xsd">
    <vehicle id="25_bus_e24:0" type="pt_bus" depart="55.00" departLane="2" arrival="182.00">
        <route edges="170079056#0 170079056#1 542503071#0 34054311#0 34054311#3"/>
        <stop busStop="1426089985" duration="30.00"/>
    </vehicle>

    <vehicle id="49_bus_X3:0" type="pt_bus" depart="120.00" departLane="0" arrival="200.00">
        <route edges="237649292#0 601740758 4745952#0 120328525#0"/>
        <stop busStop="12864216348" duration="30.00"/>
    </vehicle>

    <vehicle id="50_bus_X3:1" type="pt_bus" depart="122.00" departLane="0" arrival="202.00">
        <route edges="237649291#0 237649291#1 237649292#0"/>
        <stop busStop="12864216348" duration="30.00"/>
    </vehicle>

    <vehicle id="78_bus_N40:0" type="pt_bus" depart="159.00" departLane="0" arrival="218.00">
        <route edges="20475367"/>
        <stop busStop="1966472090" duration="30.00"/>
    </vehicle>

    <vehicle id="55_bus_L62:0" type="pt_bus" depart="128.00" departLane="0" arrival="221.00">
        <route edges="1210868746#0 1258709160"/>
        <stop busStop="2454435907" duration="30.00"/>
        <stop busStop="5264616329" duration="30.00"/>
    </vehicle>

    <vehicle id="63_bus_157:0" type="pt_bus" depart="136.00" departLane="0" arrival="259.00">
        <route edges="899931799#1 906508061#0 1210868746#0 1258709160"/>
        <stop busStop="8361317682" duration="30.00"/>
        <stop busStop="5264616329" duration="30.00"/>
    </vehicle>

    <vehicle id="54_bus_B20:0" type="pt_bus" depart="127.00" departLane="0" arrival="286.00">
        <route edges="1408672893#0 601810762#0 511211614#0"/>
        <stop busStop="3706371090" duration="30.00"/>
    </vehicle>

    <vehicle id="80_bus_567:0" type="pt_bus" depart="159.00" departLane="0" arrival="295.00">
        <route edges="-294056749#2 -543400542#2 -284616361#4 -253360734#4 -68506232#2 -1391886571 -1391886570 -543400543#1 -396947540#1"/>
        <stop busStop="-5341631255" duration="30.00"/>
    </vehicle>

    <vehicle id="79_bus_L50:0" type="pt_bus" depart="159.00" departLane="0" arrival="297.00">
        <route edges="1210868746#0 1258709160"/>
        <stop busStop="2454435907" duration="30.00"/>
        <stop busStop="5264616329" duration="30.00"/>
    </vehicle>

    <vehicle id="97_bus_D20:1" type="pt_bus" depart="201.00" departLane="0" arrival="310.00">
        <route edges="54060104#0 140181369#0 1225029477 457390925#0 27645416#0 45185735#0 45185735#5"/>
        <stop busStop="5760480297" duration="30.00"/>
    </vehicle>

    <vehicle id="42_bus_805:0" type="pt_bus" depart="99.00" departLane="0" arrival="313.00">
        <route edges="18522669#0 483469232#0 273229616#0 545084605#0 273229617#0 238179183#0 1157643604#0 1393168907 483469782 440369834#0 304693485 140001523#0 140001525 23191709#0 549749262#0 237521115#0"/>
        <stop busStop="10832069131" duration="30.00"/>
        <stop busStop="3092785220" duration="30.00"/>
    </vehicle>

    <vehicle id="24_bus_808:0" type="pt_bus" depart="54.00" departLane="0" arrival="364.00">
        <route edges="272639447#0 545747645#0 549749263 255327594#0 552386720#0 519375851#0 483469781#0 483469781#1 483469781#5 330913952#3 903025861#0 1017861008#0 511211614#0"/>
        <stop busStop="12523087147" duration="30.00"/>
        <stop busStop="12013170557" duration="30.00"/>
    </vehicle>

    <vehicle id="52_bus_806:0" type="pt_bus" depart="126.00" departLane="0" arrival="364.00">
        <route edges="18522669#0 483469232#0 273229616#0 545084605#0 273229617#0 238179183#0 1157643604#0 1393168907 483469782 440369834#0 304693485 140001523#0 140001525 23191709#0 549749262#0 237521115#0"/>
        <stop busStop="10832069131" duration="30.00"/>
        <stop busStop="3092785220" duration="30.00"/>
    </vehicle>

    <vehicle id="139_bus_H14:1" type="pt_bus" depart="341.00" departLane="0" arrival="372.00">
        <route edges="237649291#0"/>
        <stop busStop="5243064484" duration="30.00"/>
    </vehicle>

    <vehicle id="43_bus_804:0" type="pt_bus" depart="102.00" departLane="0" arrival="381.00">
        <route edges="272639447#0 545747645#0 549749263 255327594#0 552386720#0 519375851#0 545747644#0 1144051233#1 1144051233#2 44029117#0 238179178#0 238179178#2 304693484#0 545747642#0 1110435367 1110435366 8380822#0 140001530#0 545718429#0 18522669#0"/>
        <stop busStop="12523087147" duration="30.00"/>
        <stop busStop="10832069131" duration="30.00"/>
    </vehicle>

    <vehicle id="58_bus_L1050a:0" type="pt_bus" depart="131.00" departLane="0" arrival="384.00">
        <route edges="34054320#0 34054320#1 542495686 1395710332 1395710335#0 550280511#0 1395710341 288000443 34054323#0 34054323#1 309254651#0 664147081 662031115 -294056749#2 -543400542#2"/>
        <stop busStop="-364731358" duration="30.00"/>
        <stop busStop="-12884682177" duration="30.00"/>
    </vehicle>

    <vehicle id="138_bus_H14:0" type="pt_bus" depart="310.00" departLane="0" arrival="391.00">
        <route edges="237649291#0 237649291#1 237649292#0 601740758 4745952#0 120328525#0"/>
        <stop busStop="5243064484" duration="30.00"/>
    </vehicle>

    <vehicle id="82_bus_N81:0" type="pt_bus" depart="160.00" departLane="0" arrival="413.00">
        <route edges="295263589#0 545718429#0 18522669#0 483469232#0 273229616#0 545084605#0 273229617#0 238179183#0 1157643604#0 1393168907 483469782 440369834#0 304693485 140001523#0 140001525 23191709#0 549749262#0 237521115#0"/>
        <stop busStop="5107212910" duration="30.00"/>
        <stop busStop="3092785220" duration="30.00"/>
    </vehicle>

    <vehicle id="89_subway_L4:0" type="pt_subway" depart="179.00" departLane="0" arrival="414.00">
        <route edges="454749367"/>
        <stop busStop="462256421" duration="30.00"/>
        <stop busStop="462256419" duration="30.00"/>
        <stop busStop="462256418" duration="30.00"/>
        <stop busStop="462256414" duration="30.00"/>
    </vehicle>

    <vehicle id="53_bus_806:1" type="pt_bus" depart="127.00" departLane="0" arrival="419.00">
        <route edges="272639447#0 545747645#0 549749263 255327594#0 552386720#0 519375851#0 545747644#0 1144051233#1 1144051233#2 44029117#0 238179178#0 238179178#2 304693484#0 545747642#0 1110435367 1110435366 8380822#0 140001530#0 545718429#0 18522669#0"/>
        <stop busStop="12523087147" duration="30.00"/>
        <stop busStop="10832069131" duration="30.00"/>
    </vehicle>

    <vehicle id="39_bus_N82:1" type="pt_bus" depart="94.00" departLane="0" arrival="441.00">
        <route edges="272639447#0 545747645#0 549749263 255327594#0 552386720#0 519375851#0 545747644#0 1144051233#1 1144051233#2 1144051232 478705995#1 483469230#9 483469230#11 238179175#0 1232210089#0 675305862#0 1017861008#0 511211614#0"/>
        <stop busStop="5760544026" duration="30.00"/>
        <stop busStop="3706371090" duration="30.00"/>
    </vehicle>

    <vehicle id="38_bus_N82:0" type="pt_bus" depart="93.00" departLane="0" arrival="449.00">
        <route edges="295263589#0 545718429#0 18522669#0 483469232#0 273229616#0 545084605#0 273229617#0 238179183#0 1157643604#0 1393168907 483469782 440369834#0 304693485 140001523#0 140001525 23191709#0 549749262#0 237521115#0"/>
        <stop busStop="9788442646" duration="30.00"/>
        <stop busStop="3092785220" duration="30.00"/>
    </vehicle>

    <vehicle id="7_bus_X30:0" type="pt_bus" depart="19.00" departLane="0" arrival="452.00">
        <route edges="254329359 862197867#0 1409620056 862197868#0 449751440 -283778455#4 -129169441 -294056749#2 -543400542#2 -284616361#4 -253360734#4 -68506232#2 -1391886571 -1391886570 -543400543#1 -396947540#1"/>
        <stop busStop="8033328937" duration="30.00"/>
        <stop busStop="-5341631257" duration="30.00"/>
        <stop busStop="-5341631256" duration="30.00"/>
        <stop busStop="-5341631255" duration="30.00"/>
        <stop busStop="-5572252923" duration="30.00"/>
    </vehicle>

    <vehicle id="0_bus_L64:0" type="pt_bus" depart="0.00" departLane="2" arrival="455.00">
        <route edges="170079056#0 170079056#1 542503071#0 34054311#0 34054311#3 237521122#0 34054326#0 34054326#3 34054326#4 449606869#0 862197871#0 1170499073 601821914#0 238862112#0 238862112#2 238862112#4 542169703 538551233#0 -133484230 4745960 237667612#0 237960950 1409636114#0"/>
        <stop busStop="1426089985" duration="30.00"/>
        <stop busStop="5343770279" duration="30.00"/>
        <stop busStop="8394412764" duration="30.00"/>
    </vehicle>

    <vehicle id="12_bus_X97:0" type="pt_bus" depart="34.00" departLane="0" arrival="455.00">
        <route edges="238762327#2 -910513645 -238762327#1 -863629113 -864123947 862748475 449751441#0 -129169441 -294056749#2 -543400542#2 -284616361#4 -253360734#4 -68506232#2 -1391886571 -1391886570 -543400543#1 -396947540#1"/>
        <stop busStop="8047001098" duration="30.00"/>
        <stop busStop="-5341631256" duration="30.00"/>
        <stop busStop="-5341631255" duration="30.00"/>
        <stop busStop="-5256357715" duration="30.00"/>
    </vehicle>

    <vehicle id="41_bus_618:1" type="pt_bus" depart="98.00" departLane="1" arrival="482.00">
        <route edges="330913952#0 330913952#3 903025861#0 1017861008#0 511211614#0 584532229 34608163#0 511211618#0 549518612#0 549518612#1 1157644015 1157644014#0 545084605#0 273229617#0 238179183#0 1157643604#0 1393168907 483469782 440369834#0 304693485 23191708#0 549749258#0"/>
        <stop busStop="12013170557" duration="30.00"/>
    </vehicle>

    <vehicle id="35_bus_L1561:1" type="pt_bus" depart="83.00" departLane="0" arrival="492.00">
        <route edges="330913954#0 601810762#0 511211614#0 584532229 34608163#0 511211618#0 549518612#0 549518612#1 1157644015 1157644014#0 545084605#0 273229617#0 238179183#0 1157643604#0 1393168907 483469782 440369834#0 304693485 140001523#0 140001525 23191709#0 549749262#0 237521115#0"/>
        <stop busStop="12013170557" duration="30.00"/>
        <stop busStop="5274072650" duration="30.00"/>
    </vehicle>

    <vehicle id="136_bus_H4:0" type="pt_bus" depart="303.00" departLane="0" arrival="493.00">
        <route edges="554907247 145033028#1 955133750#0 238862118#0 238862118#1 123271690#0 238862117#0 238862117#4 872347729"/>
        <stop busStop="8168365852" duration="30.00"/>
        <stop busStop="2408256845" duration="30.00"/>
        <stop busStop="8168365851" duration="30.00"/>
    </vehicle>

    <vehicle id="16_bus_175:1" type="pt_bus" depart="42.00" departLane="2" arrival="505.00">
        <route edges="170079056#0 170079056#1 542503071#0 34054311#0 34054311#3 175002097 550280508 34054324#0 34054324#1 34054324#2 1395710337 1395710336 902143605#0 288000444 367979558#0 544641225#0 237960954#2 237960954#5 906505543#0 7997310#0 1395771680#0 1243061721#0 165526880#0 544124179#0 867340082 1225001919#0"/>
        <stop busStop="1478113760" duration="30.00"/>
        <stop busStop="8048728590" duration="30.00"/>
        <stop busStop="8048728589" duration="30.00"/>
        <stop busStop="5264616256" duration="30.00"/>
        <stop busStop="8048728588" duration="30.00"/>
        <stop busStop="687897179" duration="30.00"/>
    </vehicle>

    <vehicle id="33_bus_Bus:_Guimerà_=_Barcelona:0" type="pt_bus" depart="72.00" departLane="2" arrival="512.00">
        <route edges="170079056#0 170079056#1 542503071#0 34054311#0 34054311#3 175002097 550280508 34054324#0 34054324#1 34054324#2 1395710337 1395710336 902143605#0 288000444 367979558#0 237960951#0 237960951#2 237960951#5 237805215#0 450020876#0 239293914#0 239293914#3 239293914#6 239293914#7 1408568199#0 1162491019#0 1162491019#2 237914532#0 237914532#2 237914532#3 237914532#4 237914532#5 42884388#2 180717280#1 352482186"/>
        <stop busStop="1426089985" duration="30.00"/>
        <stop busStop="539147490@1744556" duration="30.00"/>
    </vehicle>

    <vehicle id="137_bus_H4:1" type="pt_bus" depart="305.00" departLane="0" arrival="522.00">
        <route edges="-872347729 -238862117#4 -238862117#3 -123271690#2 -238862118#4 -238862118#0 -955133750#2 -145033028#3 145033028#1 -145033028#3 -554907247"/>
        <stop busStop="-8168365823" duration="30.00"/>
        <stop busStop="-5127179247" duration="30.00"/>
        <stop busStop="-8168365822" duration="30.00"/>
    </vehicle>

    <vehicle id="34_bus_L1561:0" type="pt_bus" depart="77.00" departLane="0" arrival="523.00">
        <route edges="330913954#0 601810762#0 511211614#0 248565672#0 519375847#0 295263592 880144105 8380812#0 909658964 295268543#0 20475367 68506253#0 68506253#2 295215809#0 545932590#0 922450172 -238326403#2 -185957649#1 918410082#0 12373020#0 12373020#3 12373020#5 243591204#0 243591204#4 243591204#8 243591204#11 237529479#0 237529479#5 1409614855#0 237923125#0"/>
        <stop busStop="12013170557" duration="30.00"/>
    </vehicle>

    <vehicle id="62_bus_115:0" type="pt_bus" depart="134.00" departLane="0" arrival="524.00">
        <route edges="831157580#0 497952257 831157582#0 831157582#4 243598403 1307212580 1239683617 294021549 1307209203 309246597 87031380 237659847 -315269000#4 42520943#0 1420262305 557065981#0 557065981#3 30761362"/>
        <stop busStop="7760665318" duration="30.00"/>
        <stop busStop="12106325521" duration="30.00"/>
        <stop busStop="1479334948" duration="30.00"/>
        <stop busStop="2508645431" duration="30.00"/>
    </vehicle>

    <vehicle id="51_bus_808:1" type="pt_bus" depart="125.00" departLane="0" arrival="528.00">
        <route edges="511211614#0 584532229 34608163#0 511211618#0 549518612#0 549518612#1 1157644015 1157644014#0 545084605#0 273229617#0 238179183#0 1157643604#0 1393168907 483469782 440369834#0 304693485 140001523#0 140001525 23191709#0 549749262#0 237521115#0"/>
        <stop busStop="12013170557" duration="30.00"/>
        <stop busStop="12286198838" duration="30.00"/>
    </vehicle>

    <vehicle id="201_bus_157:1" type="pt_bus" depart="456.00" departLane="0" arrival="532.00">
        <route edges="54060104#0 140181369#0 -1225026749 1225030918#0 899931799#1"/>
        <stop busStop="8361317682" duration="30.00"/>
    </vehicle>

    <vehicle id="188_bus_121:0" type="pt_bus" depart="418.00" departLane="0" arrival="542.00">
        <route edges="237529472#0 238326399#0 340350446#0"/>
        <stop busStop="2536484166" duration="30.00"/>
        <stop busStop="8205986396" duration="30.00"/>
    </vehicle>

    <vehicle id="19_bus_X84:0" type="pt_bus" depart="70.00" departLane="0" arrival="547.00">
        <route edges="238762327#2 -910513645 -238762327#1 -863629113 -864123947 862748475 449751441#0 -129169441 -294056749#2 -543400542#2 -284616361#4 -253360734#4 -68506232#2 -1391886571 -1391886570 -543400543#1 -396947540#1"/>
        <stop busStop="8047001098" duration="30.00"/>
        <stop busStop="-5341631256" duration="30.00"/>
        <stop busStop="-5341631255" duration="30.00"/>
        <stop busStop="-5256357715" duration="30.00"/>
    </vehicle>

    <vehicle id="40_bus_618:0" type="pt_bus" depart="94.00" departLane="0" arrival="566.00">
        <route edges="330913954#0 601810762#0 511211614#0 584532229 34608163#0 511211618#0 549518612#0 549518612#1 1157644015 1157644014#0 545084605#0 273229617#0 238179183#0 1157643604#0 1393168907 483469782 440369834#0 304693485 140001523#0 140001525 23191709#0 549749262#0 237521115#0"/>
        <stop busStop="12013170557" duration="30.00"/>
        <stop busStop="12286198838" duration="30.00"/>
    </vehicle>

    <vehicle id="184_bus_114:1" type="pt_bus" depart="405.00" departLane="0" arrival="570.00">
        <route edges="8590860 831255357 831255358 1264825135 831255360#0 296827083#0 831255361#0 831255362"/>
        <stop busStop="7761529491" duration="30.00"/>
        <stop busStop="7761529492" duration="30.00"/>
        <stop busStop="7761529493" duration="30.00"/>
    </vehicle>

    <vehicle id="154_bus_13:1" type="pt_bus" depart="342.00" departLane="0" arrival="577.00">
        <route edges="545715326 237923111#4 237795732#0 403600282#0 450610285#0 591637631#0 238326399#0"/>
        <stop busStop="5275881874" duration="30.00"/>
        <stop busStop="8205826548" duration="30.00"/>
        <stop busStop="3107615730" duration="30.00"/>
    </vehicle>

    <vehicle id="26_bus_X83:0" type="pt_bus" depart="107.00" departLane="0" arrival="584.00">
        <route edges="238762327#2 -910513645 -238762327#1 -863629113 -864123947 862748475 449751441#0 -129169441 -294056749#2 -543400542#2 -284616361#4 -253360734#4 -68506232#2 -1391886571 -1391886570 -543400543#1 -396947540#1"/>
        <stop busStop="8047001098" duration="30.00"/>
        <stop busStop="-5341631256" duration="30.00"/>
        <stop busStop="-5341631255" duration="30.00"/>
        <stop busStop="-5256357715" duration="30.00"/>
    </vehicle>

    <vehicle id="150_bus_B20:1" type="pt_bus" depart="331.00" departLane="0" arrival="587.00">
        <route edges="511211614#0 584532229 34608163#0 511211618#0 675305861#0 675305861#2 32065149#0 32065149#3 32065149#6 330913949#0"/>
        <stop busStop="3706371090" duration="30.00"/>
        <stop busStop="5609793288" duration="30.00"/>
        <stop busStop="5609793287" duration="30.00"/>
    </vehicle>

    <vehicle id="6_bus_101:0" type="pt_bus" depart="17.00" departLane="0" arrival="589.00">
        <route edges="20045755#0 -295263587 -549518619 8380830#0 440369835#0 304693491#0 116343003#0 -908375889#1 -908375883#3 -293858828#3 -525638420#2 -524963566#6 -524963566#3 -294085186#4 -908375867#2 908375868 450396236#0 68506257#0 308861416#0 308861419#0 4746924#0 237910181#0 237910181#5 544248640#0 544248640#2 284450142#0 1370823685#0 1370823684"/>
        <stop busStop="12701996671" duration="30.00"/>
        <stop busStop="-12694287056" duration="30.00"/>
        <stop busStop="-5375631705" duration="30.00"/>
    </vehicle>

    <vehicle id="189_bus_121:1" type="pt_bus" depart="422.00" departLane="1" arrival="597.00">
        <route edges="237649291#0 237649291#1 237649292#0 601740758 237649293#0 1223827918#1 246638755 4745021#0 237529472#0"/>
        <stop busStop="12864210815" duration="30.00"/>
        <stop busStop="2536484166" duration="30.00"/>
    </vehicle>

    <vehicle id="14_bus_M12:0" type="pt_bus" depart="38.00" departLane="0" arrival="599.00">
        <route edges="237695645 309254652#0 237521117#0 284616362 175002110 309254651#0 664147081 662031115 542503078#0 237695645 309254652#0 237521117#0 284616362 175002097 550280508 34054324#0 34054324#1 34054324#2 1395710337 1395710336 902143605#0 288000444 367979558#0 544641225#0 237960954#2 237960954#5 906505543#0 7997310#0 1395771680#0 1243061721#0 165526880#0 544124179#0 867340082 1225001919#0 1225001919#1 27646032#0 178129414"/>
        <stop busStop="1856466663" duration="30.00"/>
        <stop busStop="5403752122" duration="30.00"/>
        <stop busStop="8048728590" duration="30.00"/>
        <stop busStop="8048728589" duration="30.00"/>
        <stop busStop="5264616256" duration="30.00"/>
        <stop busStop="8048728588" duration="30.00"/>
        <stop busStop="5259830246" duration="30.00"/>
    </vehicle>

    <vehicle id="88_bus_e11.2:1" type="pt_bus" depart="178.00" departLane="0" arrival="604.00">
        <route edges="20475367 68506253#0 68506253#2 295215809#0 -44027589#3 8380840#0 237525159#0 483469233#0 673080418#0 316789524#0 293858827#0 545718428#0 18522669#0 483469232#0 273229616#0 545084605#0 273229617#0 238179183#0 1157643604#0 1393168907 483469782 440369834#0 304693485 140001523#0 140001525 23191709#0 549749262#0 237521115#0"/>
        <stop busStop="1966472090" duration="30.00"/>
        <stop busStop="3092785220" duration="30.00"/>
    </vehicle>

    <vehicle id="196_bus_87:0" type="pt_bus" depart="437.00" departLane="0" arrival="610.00">
        <route edges="-296827092#1 -287670535 -541703429 -32015709#1 132535598 902160362#0 816764554#0 1395142049 1110658875 -540281990#1 -570560366#2 -542843797#0 -540501371#0 552845770#0 555536624 555536622#0"/>
        <stop busStop="-1457780061" duration="30.00"/>
        <stop busStop="5485540840" duration="30.00"/>
    </vehicle>

    <vehicle id="8_bus_X43:0" type="pt_bus" depart="27.00" departLane="0" arrival="618.00">
        <route edges="862748475 862748474#0 862748474#2 862748474#3 862748474#4 32449885 -863629113 -864123947 862748475 449751441#0 -129169441 -294056749#2 -543400542#2 -284616361#4 -253360734#4 -68506232#2 -1391886571 -1391886570 -543400543#1 -396947540#1"/>
        <stop busStop="8037346270" duration="30.00"/>
        <stop busStop="8037498822" duration="30.00"/>
        <stop busStop="-5341631256" duration="30.00"/>
        <stop busStop="-5341631255" duration="30.00"/>
        <stop busStop="-5572252923" duration="30.00"/>
    </vehicle>

    <vehicle id="10_bus_X79:0" type="pt_bus" depart="30.00" departLane="0" arrival="620.00">
        <route edges="254329359 862197867#0 1409620056 862197868#0 449751440 -283778455#4 -129169441 -294056749#2 -543400542#2 -284616361#4 -253360734#4 -68506232#2 -1391886571 -1391886570 -543400543#1 -396947540#1"/>
        <stop busStop="8039245592" duration="30.00"/>
        <stop busStop="-5341631257" duration="30.00"/>
        <stop busStop="-5341631256" duration="30.00"/>
        <stop busStop="-5341631255" duration="30.00"/>
        <stop busStop="-5572252923" duration="30.00"/>
    </vehicle>

    <vehicle id="21_bus_X79:1" type="pt_bus" depart="68.00" departLane="0" arrival="622.00">
        <route edges="396947540#0 543400543#0 1391886572 1391886571 68506232#0 253360734#0 284616361#0 1391890990#0 294056749#0 1391890993#0 175002094 449606869#0 254329359"/>
        <stop busStop="5253057127" duration="30.00"/>
        <stop busStop="5465541600" duration="30.00"/>
        <stop busStop="5343770280" duration="30.00"/>
        <stop busStop="5343770279" duration="30.00"/>
        <stop busStop="8039245592" duration="30.00"/>
    </vehicle>

    <vehicle id="95_bus_L64:1" type="pt_bus" depart="189.00" departLane="0" arrival="623.00">
        <route edges="-1409620054#3 -283778455#4 -129169441 -294056749#2 -543400542#2 -284616361#4 -253360734#4 -68506232#2 -1391886571 -1391886570 -543400543#1 -396947540#1"/>
        <stop busStop="-12815640391" duration="30.00"/>
        <stop busStop="-5341631255" duration="30.00"/>
    </vehicle>

    <vehicle id="81_bus_L68:0" type="pt_bus" depart="160.00" departLane="0" arrival="625.00">
        <route edges="251749485#0 542990495#2 1409634766#0 237549913#0 450145193#0 450145579 237549914#0 237549914#1 450145580 -1409620054#3 -283778455#4 -129169441 -294056749#2 -543400542#2 -284616361#4 -253360734#4 -68506232#2 -1391886571 -1391886570 -543400543#1 -396947540#1"/>
        <stop busStop="8173979185" duration="30.00"/>
        <stop busStop="-12815640391" duration="30.00"/>
        <stop busStop="-5341631255" duration="30.00"/>
    </vehicle>

    <vehicle id="86_bus_e11.1:1" type="pt_bus" depart="167.00" departLane="0" arrival="628.00">
        <route edges="20475367 68506253#0 68506253#2 295215809#0 -44027589#3 8380840#0 237525159#0 483469233#0 673080418#0 316789524#0 293858827#0 545718428#0 18522669#0 483469232#0 273229616#0 545084605#0 273229617#0 238179183#0 1157643604#0 1393168907 483469782 440369834#0 304693485 140001523#0 140001525 23191709#0 549749262#0 237521115#0"/>
        <stop busStop="1966472090" duration="30.00"/>
        <stop busStop="3092785220" duration="30.00"/>
        <stop busStop="12301193263" duration="30.00"/>
        <stop busStop="3092785223" duration="30.00"/>
    </vehicle>

    <vehicle id="31_bus_LN_102_Olot_-_Amer_-_Barcelona:0" type="pt_bus" depart="66.00" departLane="1" arrival="633.00">
        <route edges="238179151#0 373434809 313379187#0 1408524833#0 450137744#0 1408524835#0 1408524837#0 450137746#0 1408524839#0 1408524841#0 1408524843#0 1408524843#1 1408524844#1 1408524846#0 308355199#0 579981381#0 294085164 908375880 1408524849#0 1408525897#0 1408525897#3 1408525899#0 1408526882 1408526881#0 294085157#0 294085157#2 1408526883 450137745#0 136725370#0 136725370#3 136725370#4 1112886298#1 1369695508#0 1112886296#0 295124091#0 295124091#4 1408548654#0 1162460369#0 1112886312#0 238380511#0 1408548657#0 450139789 889215507#0 1408548658 -1395746248 -1245668409#1"/>
        <stop busStop="11158611551" duration="30.00"/>
        <stop busStop="-11573383354" duration="30.00"/>
    </vehicle>

    <vehicle id="155_bus_19:0" type="pt_bus" depart="346.00" departLane="0" arrival="648.00">
        <route edges="-549518619 8380830#0 44029116#0 44029116#4 483469231#0 579981379#0 20042722#0 20475905#0 20043469#0 237725943#0 546184105#0 546184105#3"/>
        <stop busStop="-5760480311" duration="30.00"/>
        <stop busStop="6325900918" duration="30.00"/>
        <stop busStop="6325900917" duration="30.00"/>
    </vehicle>

    <vehicle id="13_bus_X97:1" type="pt_bus" depart="36.00" departLane="0" arrival="654.00">
        <route edges="396947540#0 543400543#0 1391886572 1391886571 68506232#0 253360734#0 284616361#0 1391890990#0 294056749#0 1391890993#0 175002094 238862114#0 450186812#0 1395746240 687977194 243693224#0 243693224#1 4750220#2 -23425566#7 -23425566#6 -23425566#3 -23425566#1 -23425566#0 34054323#0 34054323#1 309254651#0 664147081 662031115 542503078#0 543400541#0 543400541#1 558302444 -910513645"/>
        <stop busStop="5253057127" duration="30.00"/>
        <stop busStop="5465541600" duration="30.00"/>
        <stop busStop="-8047001098" duration="30.00"/>
    </vehicle>

    <vehicle id="182_bus_113:1" type="pt_bus" depart="403.00" departLane="0" arrival="659.00">
        <route edges="542503076#4 58717691#0 -68506232#2 -1391886571 -1391886570 -543400543#1 -396947540#1"/>
        <stop busStop="7757019551" duration="30.00"/>
    </vehicle>

    <vehicle id="252_bus_V1:1" type="pt_bus" depart="576.00" departLane="0" arrival="675.00">
        <route edges="251749488#0 251749488#2 544124179#0 867340082 1225001919#0 1225001919#1 27646032#0 1225001918 1225026749 901541482"/>
        <stop busStop="5259830246" duration="30.00"/>
    </vehicle>

    <vehicle id="224_bus_e9:1" type="pt_bus" depart="517.00" departLane="0" arrival="679.00">
        <route edges="23191707#0 571448015#0 570553571#1 450613277#0 450613277#4 450613277#9 450613277#16 1298188812"/>
        <stop busStop="9785242333" duration="30.00"/>
    </vehicle>

    <vehicle id="257_bus_B25:0" type="pt_bus" depart="590.00" departLane="0" arrival="693.00">
        <route edges="1408672893#0 601810762#0 511211614#0"/>
        <stop busStop="3706371090" duration="30.00"/>
    </vehicle>

    <vehicle id="225_bus_L1050a:1" type="pt_bus" depart="517.00" departLane="0" arrival="702.00">
        <route edges="34054311#3 175002097 550280508 34054324#0 34054324#1 34054324#2 1395710337 1395710336 902143605#0 288000444 367979558#0 237960951#0 237960951#2 237960951#5 86163006 86163010 86163007 54847776"/>
        <stop busStop="1426089985" duration="30.00"/>
    </vehicle>

    <vehicle id="85_bus_e11.1:0" type="pt_bus" depart="166.00" departLane="0" arrival="707.00">
        <route edges="272639447#0 545747645#0 549749263 255327594#0 552386720#0 519375851#0 545747644#0 1144051233#1 1144051233#2 44029117#0 238179178#0 238179178#2 304693484#0 545747642#0 1110435367 1110435366 8380822#0 295268540#0 8380812#0 909658964 295268543#0 20475367"/>
        <stop busStop="3092785221" duration="30.00"/>
        <stop busStop="1966472090" duration="30.00"/>
    </vehicle>

    <vehicle id="193_bus_130:0" type="pt_bus" depart="432.00" departLane="0" arrival="708.00">
        <route edges="141702427#0 -554896192#1 32435179#2 32435179#3 922298083 35682487#0 35682487#1 35682487#2 4752053#0 4752053#1 237695641#0 237695634#1"/>
        <stop busStop="8348774773" duration="30.00"/>
        <stop busStop="8348774772" duration="30.00"/>
        <stop busStop="8348774771" duration="30.00"/>
        <stop busStop="841867104" duration="30.00"/>
    </vehicle>

    <vehicle id="250_bus_52:1" type="pt_bus" depart="574.00" departLane="0" arrival="709.00">
        <route edges="1225001918 1225026749 1225029477 457390925#0 27645416#0 45185735#0 45185735#5"/>
        <stop busStop="251543454" duration="30.00"/>
        <stop busStop="5760480297" duration="30.00"/>
    </vehicle>

    <vehicle id="9_bus_X43:1" type="pt_bus" depart="28.00" departLane="0" arrival="718.00">